<?xml version="1.0" encoding="UTF-8"?>

<configuration xmlns:xsi="http://www.w3.org/2001/XMLSchema-instance" xsi:noNamespaceSchemaLocation="http://sumo.dlr.de/xsd/sumoConfiguration.xsd">

    <input>
        <net-file value="cross.net.xml"/>
        <route-files value="cross.rou.xml"/>
    </input>
	<output>
	    <summary-output value="summary_100.xml"/>
		<amitran-output value="TrajectoryOutput.xml" />
    </output>

    <time>
        <begin value="0"/>
    </time>
	
	<processing>
        <ignore-route-errors value="true"/>
    </processing>

    <report>
        <verbose value="true"/>
        <no-step-log value="true"/>
    </report>
	

</configuration>
